! Touchstone simulation data from EMX version 6.1
! Thu Apr 11 00:54:05 2024
# Hz S RI R 50
3.000000e+10 9.917448e-01 -1.197022e-01 -2.054980e-03 2.091695e-03 7.333699e-03 1.781236e-02 -1.605933e-03 1.115187e-03
 1.791010e-03 1.734123e-02 1.203905e-02 1.559457e-02 7.245467e-03 1.617204e-02 9.714817e-03 1.688782e-02
 -2.054980e-03 2.091695e-03 9.478425e-01 -2.952687e-01 1.922501e-02 4.323536e-02 -3.320252e-03 3.907796e-03
 3.415153e-02 3.584180e-02 2.522019e-03 4.802096e-02 2.505037e-02 3.919508e-02 3.772193e-02 3.626710e-02
 7.333699e-03 1.781236e-02 1.922501e-02 4.323536e-02 -5.740269e-01 -4.828184e-01 2.487401e-02 3.076293e-02
 2.824229e-01 -2.819654e-02 2.932489e-01 -3.930068e-02 2.729642e-01 1.615803e-02 3.007032e-01 -1.090924e-01
 -1.605933e-03 1.115187e-03 -3.320252e-03 3.907796e-03 2.487401e-02 3.076293e-02 9.762744e-01 -1.988683e-01
 1.655243e-02 2.712168e-02 2.258404e-02 2.544673e-02 2.170167e-02 2.452825e-02 -6.098335e-03 3.641437e-02
 1.791010e-03 1.734123e-02 3.415153e-02 3.584180e-02 2.824229e-01 -2.819654e-02 1.655243e-02 2.712168e-02
 -7.063489e-01 -1.813379e-02 2.722660e-01 -2.045575e-01 2.806007e-01 -1.200775e-01 2.885225e-01 -1.638991e-01
 1.203905e-02 1.559457e-02 2.522019e-03 4.802096e-02 2.932489e-01 -3.930068e-02 2.258404e-02 2.544673e-02
 2.722660e-01 -2.045575e-01 -6.757992e-01 3.519376e-02 2.873482e-01 -1.397598e-01 2.767010e-01 -2.260891e-01
 7.245467e-03 1.617204e-02 2.505037e-02 3.919508e-02 2.729642e-01 1.615803e-02 2.170167e-02 2.452825e-02
 2.806007e-01 -1.200775e-01 2.873482e-01 -1.397598e-01 -7.132223e-01 -5.750738e-02 2.703319e-01 -2.176427e-01
 9.714817e-03 1.688782e-02 3.772193e-02 3.626710e-02 3.007032e-01 -1.090924e-01 -6.098335e-03 3.641437e-02
 2.885225e-01 -1.638991e-01 2.767010e-01 -2.260891e-01 2.703319e-01 -2.176427e-01 -6.433487e-01 8.797830e-02
3.100000e+10 9.911981e-01 -1.236579e-01 -2.129272e-03 2.282775e-03 7.781103e-03 1.812658e-02 -1.685934e-03 1.220415e-03
 1.762570e-03 1.775398e-02 1.275403e-02 1.581391e-02 7.585463e-03 1.646842e-02 1.029442e-02 1.723552e-02
 -2.129272e-03 2.282775e-03 9.444021e-01 -3.046113e-01 2.074966e-02 4.399421e-02 -3.422790e-03 4.281034e-03
 3.602811e-02 3.608236e-02 2.305943e-03 4.953958e-02 2.628099e-02 3.979784e-02 3.996958e-02 3.649286e-02
 7.781103e-03 1.812658e-02 2.074966e-02 4.399421e-02 -5.874706e-01 -4.680346e-01 2.648746e-02 3.110979e-02
 2.799854e-01 -3.369898e-02 2.913294e-01 -4.563871e-02 2.707865e-01 1.256529e-02 2.977270e-01 -1.189200e-01
 -1.685934e-03 1.220415e-03 -3.422790e-03 4.281034e-03 2.648746e-02 3.110979e-02 9.746521e-01 -2.053734e-01
 1.754376e-02 2.763092e-02 2.403189e-02 2.574913e-02 2.302435e-02 2.476064e-02 -6.570831e-03 3.791356e-02
 1.762570e-03 1.775398e-02 3.602811e-02 3.608236e-02 2.799854e-01 -3.369898e-02 1.754376e-02 2.763092e-02
 -7.092628e-01 -1.526285e-02 2.677861e-01 -2.088347e-01 2.767556e-01 -1.207119e-01 2.852860e-01 -1.670161e-01
 1.275403e-02 1.581391e-02 2.305943e-03 4.953958e-02 2.913294e-01 -4.563871e-02 2.403189e-02 2.574913e-02
 2.677861e-01 -2.088347e-01 -6.766048e-01 3.948223e-02 2.838827e-01 -1.414603e-01 2.723974e-01 -2.318772e-01
 7.585463e-03 1.646842e-02 2.628099e-02 3.979784e-02 2.707865e-01 1.256529e-02 2.302435e-02 2.476064e-02
 2.767556e-01 -1.207119e-01 2.838827e-01 -1.414603e-01 -7.168099e-01 -5.593729e-02 2.655792e-01 -2.226269e-01
 1.029442e-02 1.723552e-02 3.996958e-02 3.649286e-02 2.977270e-01 -1.189200e-01 -6.570831e-03 3.791356e-02
 2.852860e-01 -1.670161e-01 2.723974e-01 -2.318772e-01 2.655792e-01 -2.226269e-01 -6.413715e-01 9.337340e-02
3.200000e+10 9.906346e-01 -1.276111e-01 -2.198759e-03 2.483578e-03 8.227251e-03 1.842044e-02 -1.765417e-03 1.331552e-03
 1.720472e-03 1.816044e-02 1.348617e-02 1.601057e-02 7.924178e-03 1.675077e-02 1.088916e-02 1.756861e-02
 -2.198759e-03 2.483578e-03 9.408558e-01 -3.139093e-01 2.228848e-02 4.469305e-02 -3.513746e-03 4.675171e-03
 3.793876e-02 3.625260e-02 2.061808e-03 5.108137e-02 2.752144e-02 4.036047e-02 4.227751e-02 3.663622e-02
 8.227251e-03 1.842044e-02 2.228848e-02 4.469305e-02 -6.001922e-01 -4.535568e-01 2.813658e-02 3.139687e-02
 2.773856e-01 -3.890595e-02 2.892519e-01 -5.171748e-02 2.684809e-01 9.276037e-03 2.944826e-01 -1.285489e-01
 -1.765417e-03 1.331552e-03 -3.513746e-03 4.675171e-03 2.813658e-02 3.139687e-02 9.729729e-01 -2.118660e-01
 1.855884e-02 2.811215e-02 2.552365e-02 2.600367e-02 2.437920e-02 2.494440e-02 -7.057582e-03 3.945783e-02
 1.720472e-03 1.816044e-02 3.793876e-02 3.625260e-02 2.773856e-01 -3.890595e-02 1.855884e-02 2.811215e-02
 -7.120874e-01 -1.230282e-02 2.633011e-01 -2.131176e-01 2.729654e-01 -1.212704e-01 2.820865e-01 -1.701575e-01
 1.348617e-02 1.601057e-02 2.061808e-03 5.108137e-02 2.892519e-01 -5.171748e-02 2.552365e-02 2.600367e-02
 2.633011e-01 -2.131176e-01 -6.772378e-01 4.383101e-02 2.804767e-01 -1.431222e-01 2.680538e-01 -2.377432e-01
 7.924178e-03 1.675077e-02 2.752144e-02 4.036047e-02 2.684809e-01 9.276037e-03 2.437920e-02 2.494440e-02
 2.729654e-01 -1.212704e-01 2.804767e-01 -1.431222e-01 -7.203225e-01 -5.427870e-02 2.607908e-01 -2.276377e-01
 1.088916e-02 1.756861e-02 4.227751e-02 3.663622e-02 2.944826e-01 -1.285489e-01 -7.057582e-03 3.945783e-02
 2.820865e-01 -1.701575e-01 2.680538e-01 -2.377432e-01 2.607908e-01 -2.276377e-01 -6.391120e-01 9.874781e-02
3.300000e+10 9.900542e-01 -1.315619e-01 -2.262851e-03 2.694106e-03 8.670965e-03 1.869415e-02 -1.844120e-03 1.448682e-03
 1.663665e-03 1.856103e-02 1.423503e-02 1.618389e-02 8.260632e-03 1.701920e-02 1.149881e-02 1.788665e-02
 -2.262851e-03 2.694106e-03 9.372035e-01 -3.231618e-01 2.383856e-02 4.533255e-02 -3.591694e-03 5.090410e-03
 3.988150e-02 3.635088e-02 1.788500e-03 5.264911e-02 2.876969e-02 4.088323e-02 4.464460e-02 3.669369e-02
 8.670965e-03 1.869415e-02 2.383856e-02 4.533255e-02 -6.122570e-01 -4.393563e-01 2.982014e-02 3.162241e-02
 2.746412e-01 -4.382520e-02 2.870338e-01 -5.754591e-02 2.660658e-01 6.282353e-03 2.909818e-01 -1.379888e-01
 -1.844120e-03 1.448682e-03 -3.591694e-03 5.090410e-03 2.982014e-02 3.162241e-02 9.712364e-01 -2.183453e-01
 1.959707e-02 2.856467e-02 2.705901e-02 2.620819e-02 2.576527e-02 2.507779e-02 -7.557820e-03 4.104991e-02
 1.663665e-03 1.856103e-02 3.988150e-02 3.635088e-02 2.746412e-01 -4.382520e-02 1.959707e-02 2.856467e-02
 -7.148269e-01 -9.246652e-03 2.588021e-01 -2.174027e-01 2.692251e-01 -1.217468e-01 2.789150e-01 -1.733200e-01
 1.423503e-02 1.618389e-02 1.788500e-03 5.264911e-02 2.870338e-01 -5.754591e-02 2.705901e-02 2.620819e-02
 2.588021e-01 -2.174027e-01 -6.777003e-01 4.824579e-02 2.771250e-01 -1.447408e-01 2.636566e-01 -2.436847e-01
 8.260632e-03 1.701920e-02 2.876969e-02 4.088323e-02 2.660658e-01 6.282353e-03 2.576527e-02 2.507779e-02
 2.692251e-01 -1.217468e-01 2.771250e-01 -1.447408e-01 -7.237636e-01 -5.252590e-02 2.559553e-01 -2.326714e-01
 1.149881e-02 1.788665e-02 4.464460e-02 3.669369e-02 2.909818e-01 -1.379888e-01 -7.557820e-03 4.104991e-02
 2.789150e-01 -1.733200e-01 2.636566e-01 -2.436847e-01 2.559553e-01 -2.326714e-01 -6.365716e-01 1.041024e-01
3.400000e+10 9.894570e-01 -1.355102e-01 -2.320947e-03 2.914333e-03 9.111043e-03 1.894790e-02 -1.921771e-03 1.571881e-03
 1.591050e-03 1.895618e-02 1.500014e-02 1.633320e-02 8.593804e-03 1.727382e-02 1.212311e-02 1.818918e-02
 -2.320947e-03 2.914333e-03 9.334454e-01 -3.323677e-01 2.539698e-02 4.591337e-02 -3.655142e-03 5.526897e-03
 4.185421e-02 3.637549e-02 1.484902e-03 5.424572e-02 3.002367e-02 4.136642e-02 4.706961e-02 3.666155e-02
 9.111043e-03 1.894790e-02 2.539698e-02 4.591337e-02 -6.237224e-01 -4.254050e-01 3.153684e-02 3.178452e-02
 2.717677e-01 -4.846356e-02 2.846901e-01 -6.313217e-02 2.635578e-01 3.577116e-03 2.872336e-01 -1.472486e-01
 -1.921771e-03 1.571881e-03 -3.655142e-03 5.526897e-03 3.153684e-02 3.178452e-02 9.694419e-01 -2.248108e-01
 2.065781e-02 2.898768e-02 2.863759e-02 2.636033e-02 2.718153e-02 2.515900e-02 -8.070658e-03 4.269258e-02
 1.591050e-03 1.895618e-02 4.185421e-02 3.637549e-02 2.717677e-01 -4.846356e-02 2.065781e-02 2.898768e-02
 -7.174849e-01 -6.087195e-03 2.542804e-01 -2.216861e-01 2.655307e-01 -1.221349e-01 2.757627e-01 -1.765006e-01
 1.500014e-02 1.633320e-02 1.484902e-03 5.424572e-02 2.846901e-01 -6.313217e-02 2.863759e-02 2.636033e-02
 2.542804e-01 -2.216861e-01 -6.779935e-01 5.273211e-02 2.738229e-01 -1.463117e-01 2.591923e-01 -2.496993e-01
 8.593804e-03 1.727382e-02 3.002367e-02 4.136642e-02 2.635578e-01 3.577116e-03 2.718153e-02 2.515900e-02
 2.655307e-01 -1.221349e-01 2.738229e-01 -1.463117e-01 -7.271360e-01 -5.067320e-02 2.510615e-01 -2.377240e-01
 1.212311e-02 1.818918e-02 4.706961e-02 3.666155e-02 2.872336e-01 -1.472486e-01 -8.070658e-03 4.269258e-02
 2.757627e-01 -1.765006e-01 2.591923e-01 -2.496993e-01 2.510615e-01 -2.377240e-01 -6.337504e-01 1.094374e-01
3.500000e+10 9.888430e-01 -1.394563e-01 -2.372431e-03 3.144203e-03 9.546250e-03 1.918193e-02 -1.998085e-03 1.701212e-03
 1.501477e-03 1.934636e-02 1.578097e-02 1.645774e-02 8.922625e-03 1.751480e-02 1.276179e-02 1.847567e-02
 -2.372431e-03 3.144203e-03 9.295812e-01 -3.415263e-01 2.696085e-02 4.643625e-02 -3.702529e-03 5.984715e-03
 4.385469e-02 3.632469e-02 1.149908e-03 5.587429e-02 3.128124e-02 4.181043e-02 4.955113e-02 3.653586e-02
 9.546250e-03 1.918193e-02 2.696085e-02 4.643625e-02 -6.346385e-01 -4.116754e-01 3.328533e-02 3.188118e-02
 2.687789e-01 -5.282699e-02 2.822340e-01 -6.848366e-02 2.609719e-01 1.154025e-03 2.832448e-01 -1.563364e-01
 -1.998085e-03 1.701212e-03 -3.702529e-03 5.984715e-03 3.328533e-02 3.188118e-02 9.675888e-01 -2.312618e-01
 2.174037e-02 2.938034e-02 3.025894e-02 2.645760e-02 2.862685e-02 2.518607e-02 -8.595078e-03 4.438867e-02
 1.501477e-03 1.934636e-02 4.385469e-02 3.632469e-02 2.687789e-01 -5.282699e-02 2.174037e-02 2.938034e-02
 -7.200642e-01 -2.817225e-03 2.497280e-01 -2.259641e-01 2.618787e-01 -1.224286e-01 2.726215e-01 -1.796960e-01
 1.578097e-02 1.645774e-02 1.149908e-03 5.587429e-02 2.822340e-01 -6.848366e-02 3.025894e-02 2.645760e-02
 2.497280e-01 -2.259641e-01 -6.781176e-01 5.729535e-02 2.705664e-01 -1.478303e-01 2.546475e-01 -2.557848e-01
 8.922625e-03 1.751480e-02 3.128124e-02 4.181043e-02 2.609719e-01 1.154025e-03 2.862685e-02 2.518607e-02
 2.618787e-01 -1.224286e-01 2.705664e-01 -1.478303e-01 -7.304415e-01 -4.871487e-02 2.460984e-01 -2.427918e-01
 1.276179e-02 1.847567e-02 4.955113e-02 3.653586e-02 2.832448e-01 -1.563364e-01 -8.595078e-03 4.438867e-02
 2.726215e-01 -1.796960e-01 2.546475e-01 -2.557848e-01 2.460984e-01 -2.427918e-01 -6.306479e-01 1.147525e-01
3.600000e+10 9.882122e-01 -1.434002e-01 -2.416671e-03 3.383628e-03 9.975317e-03 1.939646e-02 -2.072768e-03 1.836728e-03
 1.393745e-03 1.973205e-02 1.657700e-02 1.655677e-02 9.245982e-03 1.774229e-02 1.341455e-02 1.874557e-02
 -2.416671e-03 3.383628e-03 9.256110e-01 -3.506365e-01 2.852726e-02 4.690195e-02 -3.732222e-03 6.463879e-03
 4.588063e-02 3.619669e-02 7.824304e-04 5.753804e-02 3.254020e-02 4.221570e-02 5.208758e-02 3.631245e-02
 9.975317e-03 1.939646e-02 2.852726e-02 4.690195e-02 -6.450491e-01 -3.981411e-01 3.506414e-02 3.191026e-02
 2.656870e-01 -5.692057e-02 2.796772e-01 -7.360702e-02 2.583215e-01 -9.924245e-04 2.790197e-01 -1.652591e-01
 -2.072768e-03 1.836728e-03 -3.732222e-03 6.463879e-03 3.506414e-02 3.191026e-02 9.656766e-01 -2.376977e-01
 2.284403e-02 2.974171e-02 3.192253e-02 2.649730e-02 3.010002e-02 2.515695e-02 -9.129910e-03 4.614109e-02
 1.393745e-03 1.973205e-02 4.588063e-02 3.619669e-02 2.656870e-01 -5.692057e-02 2.284403e-02 2.974171e-02
 -7.225668e-01 5.706011e-04 2.451367e-01 -2.302329e-01 2.582662e-01 -1.226215e-01 2.694831e-01 -1.829034e-01
 1.657700e-02 1.655677e-02 7.824304e-04 5.753804e-02 2.796772e-01 -7.360702e-02 3.192253e-02 2.649730e-02
 2.451367e-01 -2.302329e-01 -6.780721e-01 6.194074e-02 2.673519e-01 -1.492922e-01 2.500086e-01 -2.619386e-01
 9.245982e-03 1.774229e-02 3.254020e-02 4.221570e-02 2.583215e-01 -9.924245e-04 3.010002e-02 2.515695e-02
 2.582662e-01 -1.226215e-01 2.673519e-01 -1.492922e-01 -7.336818e-01 -4.664518e-02 2.410549e-01 -2.478706e-01
 1.341455e-02 1.874557e-02 5.208758e-02 3.631245e-02 2.790197e-01 -1.652591e-01 -9.129910e-03 4.614109e-02
 2.694831e-01 -1.829034e-01 2.500086e-01 -2.619386e-01 2.410549e-01 -2.478706e-01 -6.272626e-01 1.200464e-01
3.700000e+10 9.875646e-01 -1.473419e-01 -2.453021e-03 3.632485e-03 1.039693e-02 1.959176e-02 -2.145509e-03 1.978469e-03
 1.266596e-03 2.011382e-02 1.738764e-02 1.662945e-02 9.562711e-03 1.795649e-02 1.408107e-02 1.899825e-02
 -2.453021e-03 3.632485e-03 9.215344e-01 -3.596974e-01 3.009333e-02 4.731131e-02 -3.742512e-03 6.964331e-03
 4.792956e-02 3.598961e-02 3.814119e-04 5.924040e-02 3.379831e-02 4.258274e-02 5.467719e-02 3.598689e-02
 1.039693e-02 1.959176e-02 3.009333e-02 4.731131e-02 -6.549925e-01 -3.847763e-01 3.687170e-02 3.186946e-02
 2.625028e-01 -6.074849e-02 2.770301e-01 -7.850817e-02 2.556191e-01 -2.866963e-03 2.745609e-01 -1.740228e-01
 -2.145509e-03 1.978469e-03 -3.742512e-03 6.964331e-03 3.687170e-02 3.186946e-02 9.637046e-01 -2.441177e-01
 2.396800e-02 3.007080e-02 3.362772e-02 2.647655e-02 3.159971e-02 2.506944e-02 -9.673817e-03 4.795280e-02
 1.266596e-03 2.011382e-02 4.792956e-02 3.598961e-02 2.625028e-01 -6.074849e-02 2.396800e-02 3.007080e-02
 -7.249943e-01 4.083766e-03 2.404988e-01 -2.344888e-01 2.546907e-01 -1.227072e-01 2.663396e-01 -1.861197e-01
 1.738764e-02 1.662945e-02 3.814119e-04 5.924040e-02 2.770301e-01 -7.850817e-02 3.362772e-02 2.647655e-02
 2.404988e-01 -2.344888e-01 -6.778553e-01 6.667335e-02 2.641763e-01 -1.506931e-01 2.452617e-01 -2.681582e-01
 9.562711e-03 1.795649e-02 3.379831e-02 4.258274e-02 2.556191e-01 -2.866963e-03 3.159971e-02 2.506944e-02
 2.546907e-01 -1.227072e-01 2.641763e-01 -1.506931e-01 -7.368573e-01 -4.445835e-02 2.359201e-01 -2.529563e-01
 1.408107e-02 1.899825e-02 5.467719e-02 3.598689e-02 2.745609e-01 -1.740228e-01 -9.673817e-03 4.795280e-02
 2.663396e-01 -1.861197e-01 2.452617e-01 -2.681582e-01 2.359201e-01 -2.529563e-01 -6.235923e-01 1.253173e-01
3.800000e+10 9.869002e-01 -1.512816e-01 -2.480819e-03 3.890618e-03 1.080975e-02 1.976811e-02 -2.215987e-03 2.126459e-03
 1.118713e-03 2.049224e-02 1.821227e-02 1.667491e-02 9.871598e-03 1.815765e-02 1.476100e-02 1.923304e-02
 -2.480819e-03 3.890618e-03 9.173511e-01 -3.687082e-01 3.165614e-02 4.766521e-02 -3.731609e-03 7.485928e-03
 4.999889e-02 3.570154e-02 -5.415776e-05 6.098500e-02 3.505327e-02 4.291217e-02 5.731797e-02 3.555446e-02
 1.080975e-02 1.976811e-02 3.165614e-02 4.766521e-02 -6.645021e-01 -3.715561e-01 3.870632e-02 3.175635e-02
 2.592364e-01 -6.431409e-02 2.743020e-01 -8.319233e-02 2.528761e-01 -4.473577e-03 2.698690e-01 -1.826325e-01
 -2.215987e-03 2.126459e-03 -3.731609e-03 7.485928e-03 3.870632e-02 3.175635e-02 9.616722e-01 -2.505211e-01
 2.511145e-02 3.036650e-02 3.537376e-02 2.639227e-02 3.312448e-02 2.492122e-02 -1.022527e-02 4.982685e-02
 1.118713e-03 2.049224e-02 4.999889e-02 3.570154e-02 2.592364e-01 -6.431409e-02 2.511145e-02 3.036650e-02
 -7.273474e-01 7.729918e-03 2.358065e-01 -2.387279e-01 2.511506e-01 -1.226792e-01 2.631832e-01 -1.893419e-01
 1.821227e-02 1.667491e-02 -5.415776e-05 6.098500e-02 2.743020e-01 -8.319233e-02 3.537376e-02 2.639227e-02
 2.358065e-01 -2.387279e-01 -6.774648e-01 7.149803e-02 2.610373e-01 -1.520286e-01 2.403924e-01 -2.744408e-01
 9.871598e-03 1.815765e-02 3.505327e-02 4.291217e-02 2.528761e-01 -4.473577e-03 3.312448e-02 2.492122e-02
 2.511506e-01 -1.226792e-01 2.610373e-01 -1.520286e-01 -7.399684e-01 -4.214858e-02 2.306826e-01 -2.580444e-01
 1.476100e-02 1.923304e-02 5.731797e-02 3.555446e-02 2.698690e-01 -1.826325e-01 -1.022527e-02 4.982685e-02
 2.631832e-01 -1.893419e-01 2.403924e-01 -2.744408e-01 2.306826e-01 -2.580444e-01 -6.196340e-01 1.305624e-01
3.900000e+10 9.862189e-01 -1.552195e-01 -2.499391e-03 4.157829e-03 1.121235e-02 1.992585e-02 -2.283863e-03 2.280709e-03
 9.487171e-04 2.086798e-02 1.905022e-02 1.669226e-02 1.017137e-02 1.834602e-02 1.545396e-02 1.944920e-02
 -2.499391e-03 4.157829e-03 9.130608e-01 -3.776679e-01 3.321277e-02 4.796465e-02 -3.697639e-03 8.028437e-03
 5.208591e-02 3.533052e-02 -5.252264e-04 6.277573e-02 3.630273e-02 4.320468e-02 6.000769e-02 3.501019e-02
 1.121235e-02 1.992585e-02 3.321277e-02 4.796465e-02 -6.736067e-01 -3.584566e-01 4.056616e-02 3.156834e-02
 2.558968e-01 -6.761985e-02 2.715014e-01 -8.766406e-02 2.501035e-01 -5.815549e-03 2.649431e-01 -1.910923e-01
 -2.283863e-03 2.280709e-03 -3.697639e-03 8.028437e-03 4.056616e-02 3.156834e-02 9.595785e-01 -2.569069e-01
 2.627349e-02 3.062766e-02 3.715979e-02 2.624112e-02 3.467275e-02 2.470983e-02 -1.078254e-02 5.176636e-02
 9.487171e-04 2.086798e-02 5.208591e-02 3.533052e-02 2.558968e-01 -6.761985e-02 2.627349e-02 3.062766e-02
 -7.296261e-01 1.151690e-02 2.310522e-01 -2.429462e-01 2.476446e-01 -1.225306e-01 2.600060e-01 -1.925671e-01
 1.905022e-02 1.669226e-02 -5.252264e-04 6.277573e-02 2.715014e-01 -8.766406e-02 3.715979e-02 2.624112e-02
 2.310522e-01 -2.429462e-01 -6.768972e-01 7.641948e-02 2.579327e-01 -1.532944e-01 2.353863e-01 -2.807835e-01
 1.017137e-02 1.834602e-02 3.630273e-02 4.320468e-02 2.501035e-01 -5.815549e-03 3.467275e-02 2.470983e-02
 2.476446e-01 -1.225306e-01 2.579327e-01 -1.532944e-01 -7.430143e-01 -3.971005e-02 2.253309e-01 -2.631303e-01
 1.545396e-02 1.944920e-02 6.000769e-02 3.501019e-02 2.649431e-01 -1.910923e-01 -1.078254e-02 5.176636e-02
 2.600060e-01 -1.925671e-01 2.353863e-01 -2.807835e-01 2.253309e-01 -2.631303e-01 -6.153839e-01 1.357781e-01
4.000000e+10 9.855209e-01 -1.591555e-01 -2.508046e-03 4.433884e-03 1.160329e-02 2.006533e-02 -2.348784e-03 2.441213e-03
 7.551630e-04 2.124176e-02 1.990077e-02 1.668053e-02 1.046071e-02 1.852193e-02 1.615954e-02 1.964593e-02
 -2.508046e-03 4.433884e-03 9.086630e-01 -3.865755e-01 3.476028e-02 4.821072e-02 -3.638640e-03 8.591521e-03
 5.418773e-02 3.487451e-02 -1.032659e-03 6.461672e-02 3.754430e-02 4.346110e-02 6.274384e-02 3.434876e-02
 1.160329e-02 2.006533e-02 3.476028e-02 4.821072e-02 -6.823312e-01 -3.454547e-01 4.244921e-02 3.130269e-02
 2.524926e-01 -7.066747e-02 2.686359e-01 -9.192733e-02 2.473117e-01 -6.895492e-03 2.597808e-01 -1.994051e-01
 -2.348784e-03 2.441213e-03 -3.638640e-03 8.591521e-03 4.244921e-02 3.130269e-02 9.574230e-01 -2.632743e-01
 2.745314e-02 3.085300e-02 3.898480e-02 2.601958e-02 3.624276e-02 2.443265e-02 -1.134364e-02 5.377455e-02
 7.551630e-04 2.124176e-02 5.418773e-02 3.487451e-02 2.524926e-01 -7.066747e-02 2.745314e-02 3.085300e-02
 -7.318297e-01 1.545278e-02 2.262283e-01 -2.471397e-01 2.441721e-01 -1.222548e-01 2.568000e-01 -1.957922e-01
 1.990077e-02 1.668053e-02 -1.032659e-03 6.461672e-02 2.686359e-01 -9.192733e-02 3.898480e-02 2.601958e-02
 2.262283e-01 -2.471397e-01 -6.761479e-01 8.144212e-02 2.548611e-01 -1.544862e-01 2.302279e-01 -2.871830e-01
 1.046071e-02 1.852193e-02 3.754430e-02 4.346110e-02 2.473117e-01 -6.895492e-03 3.624276e-02 2.443265e-02
 2.441721e-01 -1.222548e-01 2.548611e-01 -1.544862e-01 -7.459939e-01 -3.713686e-02 2.198535e-01 -2.682088e-01
 1.615954e-02 1.964593e-02 6.274384e-02 3.434876e-02 2.597808e-01 -1.994051e-01 -1.134364e-02 5.377455e-02
 2.568000e-01 -1.957922e-01 2.302279e-01 -2.871830e-01 2.198535e-01 -2.682088e-01 -6.108374e-01 1.409595e-01
4.100000e+10 9.848059e-01 -1.630900e-01 -2.506077e-03 4.718502e-03 1.198105e-02 2.018698e-02 -2.410380e-03 2.607944e-03
 5.365365e-04 2.161438e-02 2.076317e-02 1.663870e-02 1.073821e-02 1.868576e-02 1.687727e-02 1.982238e-02
 -2.506077e-03 4.718502e-03 9.041570e-01 -3.954301e-01 3.629573e-02 4.840463e-02 -3.552557e-03 9.174733e-03
 5.630129e-02 3.433142e-02 -1.577212e-03 6.651239e-02 3.877557e-02 4.368237e-02 6.552359e-02 3.356456e-02
 1.198105e-02 2.018698e-02 3.629573e-02 4.840463e-02 -6.906970e-01 -3.325278e-01 4.435328e-02 3.095650e-02
 2.490320e-01 -7.345782e-02 2.657129e-01 -9.598549e-02 2.445108e-01 -7.715393e-03 2.543782e-01 -2.075728e-01
 -2.410380e-03 2.607944e-03 -3.552557e-03 9.174733e-03 4.435328e-02 3.095650e-02 9.552047e-01 -2.696223e-01
 2.864935e-02 3.104116e-02 4.084758e-02 2.572384e-02 3.783261e-02 2.408690e-02 -1.190633e-02 5.585470e-02
 5.365365e-04 2.161438e-02 5.630129e-02 3.433142e-02 2.490320e-01 -7.345782e-02 2.864935e-02 3.104116e-02
 -7.339569e-01 1.954589e-02 2.213272e-01 -2.513041e-01 2.407331e-01 -1.218444e-01 2.535573e-01 -1.990140e-01
 2.076317e-02 1.663870e-02 -1.577212e-03 6.651239e-02 2.657129e-01 -9.598549e-02 4.084758e-02 2.572384e-02
 2.213272e-01 -2.513041e-01 -6.752115e-01 8.657016e-02 2.518213e-01 -1.555998e-01 2.249014e-01 -2.936356e-01
 1.073821e-02 1.868576e-02 3.877557e-02 4.368237e-02 2.445108e-01 -7.715393e-03 3.783261e-02 2.408690e-02
 2.407331e-01 -1.218444e-01 2.518213e-01 -1.555998e-01 -7.489051e-01 -3.442307e-02 2.142380e-01 -2.732745e-01
 1.687727e-02 1.982238e-02 6.552359e-02 3.356456e-02 2.543782e-01 -2.075728e-01 -1.190633e-02 5.585470e-02
 2.535573e-01 -1.990140e-01 2.249014e-01 -2.936356e-01 2.142380e-01 -2.732745e-01 -6.059891e-01 1.461011e-01
4.200000e+10 9.840740e-01 -1.670231e-01 -2.492765e-03 5.011360e-03 1.234406e-02 2.029130e-02 -2.468263e-03 2.780857e-03
 2.912509e-04 2.198673e-02 2.163657e-02 1.656570e-02 1.100243e-02 1.883796e-02 1.760665e-02 1.997761e-02
 -2.492765e-03 5.011360e-03 8.995420e-01 -4.042305e-01 3.781614e-02 4.854771e-02 -3.437237e-03 9.777496e-03
 5.842338e-02 3.369911e-02 -2.159509e-03 6.846749e-02 3.999409e-02 4.386956e-02 6.834377e-02 3.265161e-02
 1.234406e-02 2.029130e-02 3.781614e-02 4.854771e-02 -6.987222e-01 -3.196546e-01 4.627595e-02 3.052668e-02
 2.455228e-01 -7.599100e-02 2.627393e-01 -9.984141e-02 2.417110e-01 -8.276662e-03 2.487302e-01 -2.155963e-01
 -2.468263e-03 2.780857e-03 -3.437237e-03 9.777496e-03 4.627595e-02 3.052668e-02 9.529230e-01 -2.759499e-01
 2.986097e-02 3.119068e-02 4.274676e-02 2.534982e-02 3.944015e-02 2.366966e-02 -1.246806e-02 5.801020e-02
 2.912509e-04 2.198673e-02 5.842338e-02 3.369911e-02 2.455228e-01 -7.599100e-02 2.986097e-02 3.119068e-02
 -7.360051e-01 2.380481e-02 2.163412e-01 -2.554350e-01 2.373282e-01 -1.212924e-01 2.502698e-01 -2.022293e-01
 2.163657e-02 1.656570e-02 -2.159509e-03 6.846749e-02 2.627393e-01 -9.984141e-02 4.274676e-02 2.534982e-02
 2.163412e-01 -2.554350e-01 -6.740813e-01 9.180745e-02 2.488128e-01 -1.566310e-01 2.193902e-01 -3.001373e-01
 1.100243e-02 1.883796e-02 3.999409e-02 4.386956e-02 2.417110e-01 -8.276662e-03 3.944015e-02 2.366966e-02
 2.373282e-01 -1.212924e-01 2.488128e-01 -1.566310e-01 -7.517453e-01 -3.156272e-02 2.084721e-01 -2.783214e-01
 1.760665e-02 1.997761e-02 6.834377e-02 3.265161e-02 2.487302e-01 -2.155963e-01 -1.246806e-02 5.801020e-02
 2.502698e-01 -2.022293e-01 2.193902e-01 -3.001373e-01 2.084721e-01 -2.783214e-01 -6.008330e-01 1.511958e-01
4.300000e+10 9.833251e-01 -1.709549e-01 -2.467375e-03 5.312083e-03 1.269066e-02 2.037883e-02 -2.522026e-03 2.959883e-03
 1.764317e-05 2.235984e-02 2.252009e-02 1.646042e-02 1.125185e-02 1.897906e-02 1.834711e-02 2.011062e-02
 -2.467375e-03 5.312083e-03 8.948173e-01 -4.129757e-01 3.931857e-02 4.864147e-02 -3.290428e-03 1.039909e-02
 6.055055e-02 3.297537e-02 -2.780002e-03 7.048713e-02 4.119738e-02 4.402392e-02 7.120080e-02 3.160359e-02
 1.269066e-02 2.037883e-02 3.931857e-02 4.864147e-02 -7.064215e-01 -3.068140e-01 4.821459e-02 3.000999e-02
 2.419729e-01 -7.826634e-02 2.597216e-01 -1.034975e-01 2.389223e-01 -8.580177e-03 2.428302e-01 -2.234750e-01
 -2.522026e-03 2.959883e-03 -3.290428e-03 1.039909e-02 4.821459e-02 3.000999e-02 9.505769e-01 -2.822557e-01
 3.108676e-02 3.130002e-02 4.468072e-02 2.489318e-02 4.106305e-02 2.317781e-02 -1.302593e-02 6.024452e-02
 1.764317e-05 2.235984e-02 6.055055e-02 3.297537e-02 2.419729e-01 -7.826634e-02 3.108676e-02 3.130002e-02
 -7.379714e-01 2.823847e-02 2.112624e-01 -2.595278e-01 2.339588e-01 -1.205910e-01 2.469291e-01 -2.054345e-01
 2.252009e-02 1.646042e-02 -2.780002e-03 7.048713e-02 2.597216e-01 -1.034975e-01 4.468072e-02 2.489318e-02
 2.112624e-01 -2.595278e-01 -6.727494e-01 9.715753e-02 2.458355e-01 -1.575757e-01 2.136769e-01 -3.066832e-01
 1.125185e-02 1.897906e-02 4.119738e-02 4.402392e-02 2.389223e-01 -8.580177e-03 4.106305e-02 2.317781e-02
 2.339588e-01 -1.205910e-01 2.458355e-01 -1.575757e-01 -7.545109e-01 -2.854979e-02 2.025426e-01 -2.833428e-01
 1.834711e-02 2.011062e-02 7.120080e-02 3.160359e-02 2.428302e-01 -2.234750e-01 -1.302593e-02 6.024452e-02
 2.469291e-01 -2.054345e-01 2.136769e-01 -3.066832e-01 2.025426e-01 -2.833428e-01 -5.953623e-01 1.562352e-01
4.400000e+10 9.825590e-01 -1.748857e-01 -2.429158e-03 5.620245e-03 1.301917e-02 2.045023e-02 -2.571245e-03 3.144926e-03
 -2.860283e-04 2.273484e-02 2.341276e-02 1.632166e-02 1.148488e-02 1.910966e-02 1.909802e-02 2.022032e-02
 -2.429158e-03 5.620245e-03 8.899818e-01 -4.216645e-01 4.080004e-02 4.868758e-02 -3.109771e-03 1.103865e-02
 6.267919e-02 3.215793e-02 -3.438932e-03 7.257682e-02 4.238296e-02 4.414684e-02 7.409062e-02 3.041378e-02
 1.301917e-02 2.045023e-02 4.080004e-02 4.868758e-02 -7.138070e-01 -2.939860e-01 5.016625e-02 2.940301e-02
 2.383901e-01 -8.028246e-02 2.566665e-01 -1.069556e-01 2.361551e-01 -8.626344e-03 2.366706e-01 -2.312072e-01
 -2.571245e-03 3.144926e-03 -3.109771e-03 1.103865e-02 5.016625e-02 2.940301e-02 9.481657e-01 -2.885386e-01
 3.232533e-02 3.136749e-02 4.664758e-02 2.434927e-02 4.269869e-02 2.260807e-02 -1.357667e-02 6.256122e-02
 -2.860283e-04 2.273484e-02 6.267919e-02 3.215793e-02 2.383901e-01 -8.028246e-02 3.232533e-02 3.136749e-02
 -7.398513e-01 3.285610e-02 2.060831e-01 -2.635775e-01 2.306269e-01 -1.197326e-01 2.435269e-01 -2.086258e-01
 2.341276e-02 1.632166e-02 -3.438932e-03 7.257682e-02 2.566665e-01 -1.069556e-01 4.664758e-02 2.434927e-02
 2.060831e-01 -2.635775e-01 -6.712067e-01 1.026235e-01 2.428900e-01 -1.584299e-01 2.077430e-01 -3.132679e-01
 1.148488e-02 1.910966e-02 4.238296e-02 4.414684e-02 2.361551e-01 -8.626344e-03 4.269869e-02 2.260807e-02
 2.306269e-01 -1.197326e-01 2.428900e-01 -1.584299e-01 -7.571976e-01 -2.537826e-02 1.964362e-01 -2.883314e-01
 1.909802e-02 2.022032e-02 7.409062e-02 3.041378e-02 2.366706e-01 -2.312072e-01 -1.357667e-02 6.256122e-02
 2.435269e-01 -2.086258e-01 2.077430e-01 -3.132679e-01 1.964362e-01 -2.883314e-01 -5.895695e-01 1.612096e-01
4.500000e+10 9.817757e-01 -1.788157e-01 -2.377353e-03 5.935364e-03 1.332779e-02 2.050627e-02 -2.615472e-03 3.335863e-03
 -6.215865e-04 2.311302e-02 2.431353e-02 1.614821e-02 1.169987e-02 1.923050e-02 1.985868e-02 2.030557e-02
 -2.377353e-03 5.935364e-03 8.850343e-01 -4.302957e-01 4.225762e-02 4.868792e-02 -2.892802e-03 1.169512e-02
 6.480542e-02 3.124449e-02 -4.136284e-03 7.474251e-02 4.354838e-02 4.423995e-02 7.700869e-02 2.907508e-02
 1.332779e-02 2.050627e-02 4.225762e-02 4.868792e-02 -7.208879e-01 -2.811512e-01 5.212768e-02 2.870214e-02
 2.347825e-01 -8.203725e-02 2.535804e-01 -1.102174e-01 2.334201e-01 -8.415153e-03 2.302426e-01 -2.387899e-01
 -2.615472e-03 3.335863e-03 -2.892802e-03 1.169512e-02 5.212768e-02 2.870214e-02 9.456886e-01 -2.947972e-01
 3.357518e-02 3.139133e-02 4.864516e-02 2.371309e-02 4.434415e-02 2.195698e-02 -1.411657e-02 6.496394e-02
 -6.215865e-04 2.311302e-02 6.480542e-02 3.124449e-02 2.347825e-01 -8.203725e-02 3.357518e-02 3.139133e-02
 -7.416395e-01 3.766730e-02 2.007952e-01 -2.675790e-01 2.273354e-01 -1.187089e-01 2.400544e-01 -2.117991e-01
 2.431353e-02 1.614821e-02 -4.136284e-03 7.474251e-02 2.535804e-01 -1.102174e-01 4.864516e-02 2.371309e-02
 2.007952e-01 -2.675790e-01 -6.694423e-01 1.082078e-01 2.399772e-01 -1.591896e-01 2.015692e-01 -3.198850e-01
 1.169987e-02 1.923050e-02 4.354838e-02 4.423995e-02 2.334201e-01 -8.415153e-03 4.434415e-02 2.195698e-02
 2.273354e-01 -1.187089e-01 2.399772e-01 -1.591896e-01 -7.597999e-01 -2.204208e-02 1.901387e-01 -2.932789e-01
 1.985868e-02 2.030557e-02 7.700869e-02 2.907508e-02 2.302426e-01 -2.387899e-01 -1.411657e-02 6.496394e-02
 2.400544e-01 -2.117991e-01 2.015692e-01 -3.198850e-01 1.901387e-01 -2.932789e-01 -5.834462e-01 1.661074e-01
4.600000e+10 9.809750e-01 -1.827452e-01 -2.311184e-03 6.256898e-03 1.361467e-02 2.054783e-02 -2.654240e-03 3.532538e-03
 -9.909375e-04 2.349584e-02 2.522127e-02 1.593874e-02 1.189507e-02 1.934242e-02 2.062832e-02 2.036511e-02
 -2.311184e-03 6.256898e-03 8.799735e-01 -4.388677e-01 4.368841e-02 4.864458e-02 -2.636943e-03 1.236725e-02
 6.692514e-02 3.023269e-02 -4.871722e-03 7.699062e-02 4.469118e-02 4.430505e-02 7.994982e-02 2.757995e-02
 1.361467e-02 2.054783e-02 4.368841e-02 4.864458e-02 -7.276708e-01 -2.682907e-01 5.409528e-02 2.790359e-02
 2.311586e-01 -8.352791e-02 2.504700e-01 -1.132842e-01 2.307286e-01 -7.946252e-03 2.235362e-01 -2.462184e-01
 -2.654240e-03 3.532538e-03 -2.636943e-03 1.236725e-02 5.409528e-02 2.790359e-02 9.431445e-01 -3.010299e-01
 3.483462e-02 3.136965e-02 5.067091e-02 2.297934e-02 4.599619e-02 2.122090e-02 -1.464141e-02 6.745637e-02
 -9.909375e-04 2.349584e-02 6.692514e-02 3.023269e-02 2.311586e-01 -8.352791e-02 3.483462e-02 3.136965e-02
 -7.433295e-01 4.268203e-02 1.953904e-01 -2.715266e-01 2.240882e-01 -1.175117e-01 2.365025e-01 -2.149500e-01
 2.522127e-02 1.593874e-02 -4.871722e-03 7.699062e-02 2.504700e-01 -1.132842e-01 5.067091e-02 2.297934e-02
 1.953904e-01 -2.715266e-01 -6.674443e-01 1.139125e-01 2.370990e-01 -1.598510e-01 1.951349e-01 -3.265273e-01
 1.189507e-02 1.934242e-02 4.469118e-02 4.430505e-02 2.307286e-01 -7.946252e-03 4.599619e-02 2.122090e-02
 2.240882e-01 -1.175117e-01 2.370990e-01 -1.598510e-01 -7.623116e-01 -1.853526e-02 1.836354e-01 -2.981760e-01
 2.062832e-02 2.036511e-02 7.994982e-02 2.757995e-02 2.235362e-01 -2.462184e-01 -1.464141e-02 6.745637e-02
 2.365025e-01 -2.149500e-01 1.951349e-01 -3.265273e-01 1.836354e-01 -2.981760e-01 -5.769835e-01 1.709153e-01
4.700000e+10 9.801566e-01 -1.866744e-01 -2.229864e-03 6.584239e-03 1.387789e-02 2.057592e-02 -2.687061e-03 3.734759e-03
 -1.396071e-03 2.388496e-02 2.613475e-02 1.569189e-02 1.206869e-02 1.944643e-02 2.140604e-02 2.039761e-02
 -2.229864e-03 6.584239e-03 8.747978e-01 -4.473790e-01 4.508956e-02 4.855990e-02 -2.339508e-03 1.305355e-02
 6.903396e-02 2.912009e-02 -5.644527e-03 7.932809e-02 4.580897e-02 4.434418e-02 8.290817e-02 2.592044e-02